#       point_x         point_y         point_z             U_x             U_y             U_z
           -196             -46             1.5   -0.0032393137       3.7506291    0.0020987265
           -200             -46             1.5               0       6.8749973    0.0034779827
           -200             -50             1.5               0       7.9158342    0.0011989664
           -196             -50             1.5               0           6.875               0
           -192             -46             1.5   -0.0064414946       3.7506322    0.0020616677
           -192             -50             1.5               0           6.875               0
           -188             -46             1.5   -0.0097433497       3.7506815    0.0020792541
           -188             -50             1.5               0           6.875               0
     -183.99999             -46             1.5    -0.013176188       3.7507486    0.0021085343
     -183.99999             -50             1.5               0           6.875               0
     -179.99999             -46             1.5    -0.016779754       3.7508314    0.0021489022
     -179.99999             -50             1.5               0           6.875               0
     -175.99998             -46             1.5    -0.020594237       3.7509307    0.0021994794
     -175.99998             -50             1.5               0       6.8750007               0
     -171.99996             -46             1.5    -0.024663196       3.7510498    0.0022604608
     -171.99996             -50             1.5               0       6.8750007               0
     -167.99994             -46             1.5    -0.029033778       3.7511906    0.0023323984
     -167.99994             -50             1.5               0       6.8750001               0
      -163.9999      -45.999999             1.5    -0.033750606       3.7513526    0.0024156218
     -163.99991             -50             1.5               0       6.8750008               0
     -159.99984      -45.999999             1.5     -0.03885861       3.7515349    0.0025118297
     -159.99986             -50             1.5               0       6.8750016               0
     -155.99976      -45.999998             1.5    -0.044406575       3.7517371     0.002621595
     -155.99978             -50             1.5               0       6.8750024               0
     -151.99964      -45.999996             1.5    -0.050447538        3.751958    0.0027455179
     -151.99967             -50             1.5               0       6.8750035               0
     -147.99946      -45.999993             1.5    -0.057039022       3.7521969    0.0028831383
     -147.99951             -50             1.5               0       6.8750047               0
     -143.99921      -45.999989             1.5    -0.064235561        3.752452    0.0030353664
     -143.99929             -50             1.5               0       6.8750076               0
     -139.99887      -45.999982             1.5    -0.072084689       3.7527212     0.003203235
     -139.99899             -50             1.5               0        6.875011               0
     -135.99843       -45.99997             1.5    -0.080627062       3.7529992    0.0033873908
     -135.99859             -50             1.5               0       6.8750147               0
     -131.99786      -45.999952             1.5    -0.089890226       3.7532786     0.003587613
     -131.99808             -50             1.5               0       6.8750211               0
     -127.99714      -45.999925             1.5    -0.099886486       3.7535494    0.0038041738
     -127.99745             -50             1.5               0       6.8750301               0
     -123.99627      -45.999882             1.5     -0.11060561       3.7537957    0.0040371117
     -123.99669             -50             1.5               0       6.8750421               0
     -119.99527      -45.999819             1.5      -0.1220012       3.7539959    0.0042856964
     -119.99582             -50             1.5               0       6.8750583               0
     -115.99415      -45.999727             1.5     -0.13397894       3.7541215    0.0045497601
     -115.99484             -50             1.5               0       6.8750792               0
     -111.99296      -45.999592             1.5     -0.14638517       3.7541361    0.0048287447
     -111.99382             -50             1.5               0        6.875107               0
     -107.99178      -45.999404             1.5     -0.15897844       3.7539907    0.0051198476
     -107.99281             -50             1.5               0       6.8751445               0
     -103.99068      -45.999142             1.5     -0.17140318       3.7536214    0.0054150808
     -103.99188             -50             1.5               0        6.875194               0
     -99.989775       -45.99879             1.5     -0.18319013       3.7529585     0.005708281
     -99.991106             -50             1.5               0        6.875259               0
     -95.989157      -45.998328             1.5      -0.1937632        3.751941    0.0059932164
     -95.990578             -50             1.5               0       6.8753432               0
     -91.988903      -45.997743             1.5     -0.20244774       3.7505184    0.0062662056
     -91.990357             -50             1.5               0       6.8754493               0
     -87.989062      -45.997029             1.5     -0.20845587       3.7486488    0.0065252442
      -87.99048             -50             1.5               0       6.8755791               0
     -83.989635      -45.996198             1.5     -0.21096992       3.7463693    0.0067631893
     -83.990952             -50             1.5               0       6.8757311               0
     -79.990581      -45.995285             1.5     -0.20931397       3.7437887    0.0069809376
     -79.991741             -50             1.5               0       6.8758993               0
     -75.991821      -45.994355             1.5     -0.20307022        3.741077    0.0071785919
     -75.992789             -50             1.5               0        6.876072               0
     -71.993257      -45.993492             1.5     -0.19219512        3.738463    0.0073544319
     -71.994014             -50             1.5               0       6.8762327               0
     -67.994786      -45.992799             1.5     -0.17707208       3.7361694    0.0075121244
     -67.995333             -50             1.5               0        6.876363               0
     -63.996313      -45.992372             1.5     -0.15846486       3.7343915    0.0076531915
     -63.996667             -50             1.5               0       6.8764448               0
     -59.997768      -45.992275             1.5     -0.13742434       3.7332615    0.0077804554
     -59.997952             -50             1.5               0       6.8764657               0
     -55.999104      -45.992526             1.5     -0.11516097       3.7328391    0.0078944312
     -55.999141             -50             1.5               0       6.8764221               0
      -52.00029      -45.993086             1.5    -0.092917559       3.7331123    0.0079925188
     -52.000199             -50             1.5               0       6.8763208               0
     -48.001304      -45.993873             1.5    -0.071840278       3.7339966    0.0080700633
     -48.001105             -50             1.5               0       6.8761764               0
     -44.002128      -45.994785             1.5    -0.052854008        3.735343    0.0081216684
     -44.001841             -50             1.5               0       6.8760075               0
      -40.00275      -45.995722             1.5    -0.036570676       3.7369702    0.0081459428
     -40.002395             -50             1.5               0       6.8758324               0
     -36.003164      -45.996609             1.5    -0.023273609       3.7386953    0.0081516677
     -36.002764             -50             1.5               0       6.8756657               0
      -32.00337      -45.997391             1.5    -0.012965499       3.7403539     0.008162873
      -32.00295             -50             1.5               0       6.8755174               0
     -28.003379      -45.998046             1.5   -0.0054428998       3.7418336     0.008210191
     -28.002963             -50             1.5               0       6.8753929               0
     -24.003211      -45.998569             1.5  -0.00037745814       3.7430838    0.0082915808
     -24.002821             -50             1.5               0       6.8752927               0
     -20.002893       -45.99897             1.5    0.0026159885       3.7441026      0.00837473
     -20.002547             -50             1.5               0       6.8752153               0
     -16.002456      -45.999266             1.5     0.003933389       3.7449072    0.0084401675
     -16.002165             -50             1.5               0        6.875158               0
     -12.001928      -45.999475             1.5    0.0039568509       3.7455112    0.0084858981
     -12.001702             -50             1.5               0       6.8751173               0
     -8.0013319      -45.999612             1.5    0.0030435288       3.7459308     0.008514187
     -8.0011773             -50             1.5               0       6.8750905               0
     -4.0006852      -45.999691             1.5     0.001523107       3.7461806    0.0085275416
     -4.0006057             -50             1.5               0       6.8750754               0
  7.9759491e-07      -45.999717             1.5  -0.00029589736       3.7462686    0.0085278547
  6.5563064e-07             -50             1.5               0       6.8750706               0
      4.0006868      -45.999691             1.5   -0.0021148815        3.746196     0.008516021
      4.0006071             -50             1.5               0       6.8750754               0
      8.0013336      -45.999612             1.5   -0.0036342551       3.7459589    0.0084916036
      8.0011787             -50             1.5               0       6.8750904               0
      12.001929      -45.999475             1.5   -0.0045436891       3.7455492    0.0084527377
      12.001704             -50             1.5               0       6.8751174               0
      16.002458      -45.999266             1.5   -0.0045131574       3.7449558    0.0083965897
      16.002167             -50             1.5               0        6.875158               0
      20.002895       -45.99897             1.5   -0.0031870662       3.7441659    0.0083200091
      20.002549             -50             1.5               0       6.8752154               0
      24.003214      -45.998568             1.5  -0.00018467484       3.7431668    0.0082239876
      24.002824             -50             1.5               0       6.8752928               0
      28.003382      -45.998045             1.5     0.004889199       3.7419408    0.0081266273
      28.002967             -50             1.5               0       6.8753931               0
      32.003374       -45.99739             1.5     0.012423336       3.7404853    0.0080606031
      32.002955             -50             1.5               0       6.8755178               0
       36.00317      -45.996607             1.5     0.022755519       3.7388463     0.008030236
       36.00277             -50             1.5               0        6.875666               0
      40.002758       -45.99572             1.5     0.036093286       3.7371374    0.0080046421
      40.002403             -50             1.5               0       6.8758328               0
      44.002139      -45.994782             1.5     0.052425604       3.7355293    0.0079569236
      44.001851             -50             1.5               0        6.876008               0
      48.001318       -45.99387             1.5      0.07145078       3.7342116    0.0078772818
      48.001118             -50             1.5               0       6.8761771               0
      52.000308      -45.993081             1.5      0.09253839       3.7333688    0.0077686895
      52.000216             -50             1.5               0       6.8763218               0
      55.999127      -45.992521             1.5      0.11475087       3.7331509    0.0076365715
      55.999161             -50             1.5               0       6.8764233               0
      59.997796      -45.992269             1.5      0.13692437        3.733644    0.0074865316
      59.997977             -50             1.5               0        6.876467               0
      63.996346      -45.992364             1.5      0.15778813       3.7348621    0.0073218384
      63.996697             -50             1.5               0       6.8764464               0
      67.994823       -45.99279             1.5      0.17610471       3.7367436    0.0071448428
      67.995367             -50             1.5               0       6.8763649               0
      71.993299      -45.993482             1.5      0.19081316       3.7391481     0.006956784
       71.99405             -50             1.5               0       6.8762346               0
      75.991865      -45.994344             1.5      0.20116762       3.7418626    0.0067568768
      75.992828             -50             1.5               0        6.876074               0
      79.990626      -45.995274             1.5      0.20683225       3.7446371    0.0065442716
      79.991782             -50             1.5               0       6.8759015               0
       83.98968      -45.996187             1.5       0.2079316        3.747228    0.0063185596
      83.990993             -50             1.5               0       6.8757333               0
      87.989106      -45.997018             1.5      0.20494009       3.7494663    0.0060781278
       87.99052             -50             1.5               0       6.8755811               0
      91.988944      -45.997733             1.5      0.19855142       3.7512571    0.0058250044
      91.990395             -50             1.5               0       6.8754512               0
      95.989194       -45.99832             1.5      0.18959485       3.7525802    0.0055657977
      95.990612             -50             1.5               0       6.8753448               0
      99.989808      -45.998783             1.5      0.17887296       3.7534868     0.005303621
      99.991136             -50             1.5               0       6.8752602               0
      103.99071      -45.999136             1.5      0.16707862       3.7540435    0.0050420288
      103.99191             -50             1.5               0       6.8751951               0
       107.9918      -45.999398             1.5      0.15477816       3.7543239    0.0047841046
      107.99283             -50             1.5               0       6.8751463               0
      111.99298      -45.999588             1.5      0.14240557       3.7543975     0.004532476
      111.99384             -50             1.5               0       6.8751086               0
      115.99416      -45.999722             1.5      0.13027709       3.7543219    0.0042893193
      115.99486             -50             1.5               0       6.8750793               0
      119.99528      -45.999816             1.5      0.11861127       3.7541434    0.0040565004
      119.99583             -50             1.5               0       6.8750583               0
      123.99628       -45.99988             1.5      0.10754877       3.7538991    0.0038355432
       123.9967             -50             1.5               0       6.8750426               0
      127.99715      -45.999923             1.5     0.097169711       3.7536177    0.0036274794
      127.99746             -50             1.5               0       6.8750305               0
      131.99786      -45.999951             1.5     0.087508663       3.7533195    0.0034329524
      131.99808             -50             1.5               0        6.875022               0
      135.99844      -45.999969             1.5     0.078568244        3.753019    0.0032523329
      135.99859             -50             1.5               0       6.8750156               0
      139.99888      -45.999981             1.5     0.070328945       3.7527263    0.0030857695
      139.99899             -50             1.5               0       6.8750111               0
      143.99922      -45.999989             1.5      0.06275625        3.752448    0.0029330363
      143.99929             -50             1.5               0       6.8750076               0
      147.99947      -45.999993             1.5     0.055806331       3.7521878    0.0027937095
      147.99951             -50             1.5               0        6.875004               0
      151.99964      -45.999996             1.5     0.049431287       3.7519483    0.0026677207
      151.99967             -50             1.5               0       6.8750028               0
      155.99976      -45.999998             1.5     0.043579559       3.7517309    0.0025548564
      155.99978             -50             1.5               0       6.8750024               0
      159.99984      -45.999999             1.5      0.03819818       3.7515359    0.0024543275
      159.99986             -50             1.5               0       6.8750016               0
       163.9999      -45.999999             1.5     0.033236145       3.7513626    0.0023653338
      163.99991             -50             1.5               0       6.8750008               0
      167.99994             -46             1.5     0.028644263       3.7512101     0.002287219
      167.99994             -50             1.5               0       6.8750001               0
      171.99996             -46             1.5     0.024375617       3.7510773    0.0022193721
      171.99996             -50             1.5               0       6.8750007               0
      175.99998             -46             1.5      0.02038537       3.7509632    0.0021613698
      175.99998             -50             1.5               0       6.8750007               0
      179.99999             -46             1.5     0.016630796       3.7508671    0.0021129052
      179.99999             -50             1.5               0           6.875               0
      183.99999             -46             1.5     0.013071315       3.7507874     0.002074025
      183.99999             -50             1.5               0           6.875               0
            188             -46             1.5    0.0096687805        3.750723    0.0020458401
            188             -50             1.5               0           6.875               0
            192             -46             1.5    0.0063844003       3.7506768    0.0020287602
            192             -50             1.5               0           6.875               0
            196             -46             1.5    0.0032011107       3.7506649     0.002068478
            196             -50             1.5               0           6.875               0
            200             -50             1.5               0       7.9158587    0.0011752644
            200             -46             1.5               0       6.8750548    0.0034369595
           -196             -42             1.5   -0.0063919325       3.7537099    0.0035779756
           -200             -42             1.5               0       6.8796337    0.0057743872
           -192             -42             1.5    -0.012838064       3.7537467    0.0035796512
           -188             -42             1.5    -0.019448547       3.7539112    0.0036174487
     -183.99999             -42             1.5    -0.026310905       3.7541403    0.0036706694
     -179.99998             -42             1.5    -0.033502788       3.7544305    0.0037450254
     -175.99997             -42             1.5    -0.041108244        3.754784    0.0038399469
     -171.99996             -42             1.5    -0.049216691        3.755207    0.0039556944
     -167.99993      -41.999999             1.5    -0.057919258       3.7557041    0.0040926564
     -163.99988      -41.999999             1.5    -0.067309708       3.7562772    0.0042518647
     -159.99981      -41.999998             1.5     -0.07748637       3.7569263    0.0044357321
     -155.99971      -41.999996             1.5      -0.0885491         3.75765    0.0046456545
     -151.99956      -41.999993             1.5     -0.10060556       3.7584458    0.0048831755
     -147.99935      -41.999987             1.5     -0.11376941       3.7593108    0.0051488466
     -143.99904      -41.999979             1.5     -0.12815322         3.76024    0.0054445668
     -139.99862      -41.999965             1.5      -0.1438565       3.7612249    0.0057721141
     -135.99806      -41.999943             1.5     -0.16096724       3.7622487    0.0061330861
     -131.99734      -41.999909             1.5     -0.17955339       3.7632851    0.0065275178
     -127.99642      -41.999855             1.5     -0.19964871       3.7642943    0.0069552133
     -123.99531      -41.999775             1.5     -0.22124217       3.7652192    0.0074162424
     -119.99402      -41.999653             1.5     -0.24425211       3.7659814    0.0079097171
     -115.99256      -41.999476             1.5     -0.26849888       3.7664754     0.008434415
     -111.99101      -41.999219             1.5      -0.2936726       3.7665643    0.0089882602
     -107.98945      -41.998856             1.5     -0.31929512       3.7660721    0.0095668001
     -103.98801      -41.998353             1.5     -0.34467541       3.7647778     0.010158629
     -99.986819      -41.997671             1.5     -0.36887705       3.7624342     0.010752824
     -95.986013      -41.996771             1.5     -0.39072032       3.7588098     0.011340281
     -91.985703      -41.995621             1.5     -0.40878974       3.7537013     0.011913767
     -87.985952      -41.994204             1.5     -0.42141588       3.7469571     0.012468559
     -83.986761      -41.992538             1.5     -0.42683584       3.7387248     0.012989112
     -79.988063      -41.990687             1.5     -0.42365321       3.7294096     0.013470445
     -75.989735      -41.988777             1.5     -0.41098641       3.7196059     0.013916552
     -71.991634      -41.986987             1.5     -0.38868748       3.7101538      0.01432533
     -67.993614      -41.985536             1.5     -0.35759006       3.7018973     0.014699457
     -63.995553      -41.984637             1.5     -0.31932952       3.6955321     0.015041261
     -59.997369      -41.984434             1.5     -0.27612367       3.6915199     0.015352294
     -55.999015       -41.98496             1.5     -0.23051304       3.6900557     0.015630197
     -52.000468      -41.986134             1.5     -0.18509212       3.6910774     0.015869146
     -48.001711      -41.987778             1.5     -0.14221981       3.6942572     0.016061552
     -44.002726      -41.989664             1.5     -0.10377128       3.6990432     0.016201739
     -40.003497      -41.991582             1.5    -0.070959641       3.7047802     0.016292046
     -36.004012      -41.993375             1.5    -0.044311026       3.7108275      0.01635197
     -32.004267      -41.994938             1.5    -0.023776985       3.7166439     0.016417665
     -28.004271      -41.996231             1.5   -0.0088951318       3.7218717     0.016520052
     -24.004051      -41.997254             1.5    0.0010244025       3.7263409     0.016657659
     -20.003643      -41.998031             1.5    0.0067587055       3.7300102     0.016794095
     -16.003087      -41.998602             1.5    0.0091149307        3.732909     0.016900942
     -12.002419      -41.999002             1.5    0.0088763947        3.735086     0.016976393
     -8.0016697      -41.999265             1.5    0.0067640991       3.7365983     0.017023649
     -4.0008592      -41.999414             1.5    0.0034391751       3.7374954     0.017045814
  1.1423487e-06      -41.999463             1.5  -0.00048180028        3.737807     0.017045062
      4.0008615      -41.999415             1.5   -0.0044046383       3.7375403     0.017022557
       8.001672      -41.999265             1.5   -0.0077336257       3.7366835     0.016978072
      12.002422      -41.999002             1.5   -0.0098493832       3.7352074     0.016909451
      16.003089      -41.998602             1.5    -0.010090793       3.7330692     0.016812842
      20.003646      -41.998031             1.5   -0.0077406871       3.7302185     0.016683514
      24.004055      -41.997253             1.5   -0.0020190439       3.7266075     0.016521842
      28.004275       -41.99623             1.5    0.0078815589       3.7222055     0.016353989
      32.004272      -41.994936             1.5     0.022745874       3.7170447     0.016216232
      36.004018      -41.993372             1.5     0.043279725       3.7112882     0.016113993
      40.003506      -41.991579             1.5     0.069954748       3.7052981     0.016017064
      44.002738      -41.989659             1.5      0.10280989       3.6996288     0.015885098
      48.001727      -41.987771             1.5       0.1412913       3.6949379      0.01569594
      52.000489      -41.986126             1.5      0.18415063        3.691893     0.015448383
      55.999041       -41.98495             1.5      0.22948116       3.6910505     0.015148926
        59.9974      -41.984422             1.5      0.27488408       3.6927414     0.014806656
      63.995591      -41.984623             1.5      0.31771321        3.697028     0.014429229
      67.993658      -41.985519             1.5      0.35538137       3.7037053     0.014023353
      71.991683      -41.986968             1.5      0.38565038       3.7122838     0.013593877
      75.989788      -41.988756             1.5      0.40691601        3.722012     0.013142214
      79.988117      -41.990665             1.5      0.41843946       3.7319661     0.012670365
      83.986816      -41.992516             1.5      0.42052925       3.7412723     0.012178508
      87.986005      -41.994183             1.5      0.41419381       3.7493353     0.011661423
      91.985751      -41.995601             1.5      0.40088542       3.7557894     0.011125886
      95.986057      -41.996753             1.5      0.38238775       3.7605562     0.010585316
      99.986858      -41.997655             1.5      0.36037373       3.7638198     0.010044293
      103.98804      -41.998339             1.5      0.33626788       3.7658223     0.009508755
      107.98948      -41.998845             1.5      0.31122038       3.7668292    0.0089841409
      111.99104       -41.99921             1.5      0.28610331       3.7670903    0.0084748827
      115.99258      -41.999468             1.5      0.26154725       3.7668138    0.0079847406
      119.99403      -41.999648             1.5      0.23798201       3.7661675     0.007517059
      123.99533       -41.99977             1.5      0.21567864       3.7652862    0.0070744233
      127.99643      -41.999852             1.5      0.19478798       3.7642725    0.0066586264
      131.99735      -41.999907             1.5      0.17537009       3.7631999    0.0062707288
      135.99807      -41.999942             1.5      0.15742187       3.7621203    0.0059112596
      139.99863      -41.999964             1.5      0.14089738       3.7610702    0.0055805691
      143.99904      -41.999978             1.5      0.12572226       3.7600731    0.0052783759
      147.99935      -41.999987             1.5      0.11180452       3.7591428     0.005003798
      151.99956      -41.999992             1.5      0.09904237       3.7582877    0.0047560908
      155.99971      -41.999996             1.5     0.087329943       3.7575122    0.0045343183
      159.99981      -41.999997             1.5     0.076561839       3.7568165     0.004337123
      163.99988      -41.999999             1.5     0.066634414       3.7561989    0.0041632165
      167.99993      -41.999999             1.5      0.05744733       3.7556566    0.0040113601
      171.99996             -42             1.5     0.048904822       3.7551861    0.0038804199
      175.99997             -42             1.5     0.040915625       3.7547841    0.0037696438
      179.99998             -42             1.5     0.033392634       3.7544471    0.0036784885
      183.99999             -42             1.5     0.026252745       3.7541713    0.0036066761
            188             -42             1.5     0.019417235       3.7539544    0.0035556154
            192             -42             1.5     0.012811883       3.7538003    0.0035201709
            196             -42             1.5    0.0063692223       3.7537499    0.0035275503
            200             -42             1.5               0       6.8796822    0.0057195994
           -196             -38             1.5   -0.0095181314       3.7590515    0.0046243242
           -200             -38             1.5               0        6.888216    0.0074239086
           -192             -38             1.5    -0.019140634       3.7592058     0.004647696
     -187.99999             -38             1.5    -0.029002522       3.7595755    0.0047015197
     -183.99999             -38             1.5    -0.039233253       3.7600883    0.0047768577
     -179.99998             -38             1.5    -0.049948871        3.760743    0.0048829422
     -175.99997             -38             1.5    -0.061278488       3.7615445    0.0050192886
     -171.99994      -37.999999             1.5    -0.073354503       3.7625024    0.0051866953